# vtk DataFile Version 1.0 
Bar_TO_3D 
ASCII 
DATASET UNSTRUCTURED_GRID 
POINTS 10251 float 
0.000000 0.000000 
0.000000 0.000000 0.100000 
0.000000 0.000000 0.200000 
0.000000 0.000000 0.300000 
0.000000 0.000000 0.400000 
0.000000 0.000000 0.500000 
0.000000 0.000000 0.600000 
0.000000 0.000000 0.700000 
0.000000 0.000000 0.800000 
0.000000 0.000000 0.900000 
0.000000 0.000000 1.000000 
0.000000 0.000000 1.100000 
0.000000 0.000000 1.200000 
0.000000 0.000000 1.300000 
0.000000 0.000000 1.400000 
0.000000 0.000000 1.500000 
0.000000 0.000000 1.600000 
0.000000 0.000000 1.700000 
0.000000 0.000000 1.800000 
0.000000 0.000000 1.900000 
0.000000 0.000000 2.000000 
0.000000 0.000000 2.100000 
0.000000 0.000000 2.200000 
0.000000 0.000000 2.300000 
0.000000 0.000000 2.400000 
0.000000 0.000000 2.500000 
0.000000 0.000000 2.600000 
0.000000 0.000000 2.700000 
0.000000 0.000000 2.800000 
0.000000 0.000000 2.900000 
0.000000 0.000000 3.000000 
0.000000 0.000000 3.100000 
0.000000 0.000000 3.200000 
0.000000 0.000000 3.300000 
0.000000 0.000000 3.400000 
0.000000 0.000000 3.500000 
0.000000 0.000000 3.600000 
0.000000 0.000000 3.700000 
0.000000 0.000000 3.800000 
0.000000 0.000000 3.900000 
0.000000 0.000000 4.000000 
0.000000 0.000000 4.100000 
0.000000 0.000000 4.200000 
0.000000 0.000000 4.300000 
0.000000 0.000000 4.400000 
0.000000 0.000000 4.500000 
0.000000 0.000000 4.600000 
0.000000 0.000000 4.700000 
0.000000 0.000000 4.800000 
0.000000 0.000000 4.900000 
0.000000 0.000000 5.000000 
0.000000 0.100000 0.000000 
0.000000 0.100000 0.100000 
0.000000 0.100000 0.200000 
0.000000 0.100000 0.300000 
0.000000 0.100000 0.400000 
0.000000 0.100000 0.500000 
0.000000 0.100000 0.600000 
0.000000 0.100000 0.700000 
0.000000 0.100000 0.800000 
0.000000 0.100000 0.900000 
0.000000 0.100000 1.000000 
0.000000 0.100000 1.100000 
0.000000 0.100000 1.200000 
0.000000 0.100000 1.300000 
0.000000 0.100000 1.400000 
0.000000 0.100000 1.500000 
0.000000 0.100000 1.600000 
0.000000 0.100000 1.700000 
0.000000 0.100000 1.800000 
0.000000 0.100000 1.900000 
0.000000 0.100000 2.000000 
0.000000 0.100000 2.100000 
0.000000 0.100000 2.200000 
0.000000 0.100000 2.300000 
0.000000 0.100000 2.400000 
0.000000 0.100000 2.500000 
0.000000 0.100000 2.600000 
0.000000 0.100000 2.700000 
0.000000 0.100000 2.800000 
0.000000 0.100000 2.900000 
0.000000 0.100000 3.000000 
0.000000 0.100000 3.100000 
0.000000 0.100000 3.200000 
0.000000 0.100000 3.300000 
0.000000 0.100000 3.400000 
0.000000 0.100000 3.500000 
0.000000 0.100000 3.600000 
0.000000 0.100000 3.700000 
0.000000 0.100000 3.800000 
0.000000 0.100000 3.900000 
0.000000 0.100000 4.000000 
0.000000 0.100000 4.100000 
0.000000 0.100000 4.200000 
0.000000 0.100000 4.300000 
0.000000 0.100000 4.400000 
0.000000 0.100000 4.500000 
0.000000 0.100000 4.600000 
0.000000 0.100000 4.700000 
0.000000 0.100000 4.800000 
0.000000 0.100000 4.900000 
0.000000 0.100000 5.000000 
0.000000 0.200000 0.000000 
0.000000 0.200000 0.100000 
0.000000 0.200000 0.200000 
0.000000 0.200000 0.300000 
0.000000 0.200000 0.400000 
0.000000 0.200000 0.500000 
0.000000 0.200000 0.600000 
0.000000 0.200000 0.700000 
0.000000 0.200000 0.800000 
0.000000 0.200000 0.900000 
0.000000 0.200000 1.000000 
0.000000 0.200000 1.100000 
0.000000 0.200000 1.200000 
0.000000 0.200000 1.300000 
0.000000 0.200000 1.400000 
0.000000 0.200000 1.500000 
0.000000 0.200000 1.600000 
0.000000 0.200000 1.700000 
0.000000 0.200000 1.800000 
0.000000 0.200000 1.900000 
0.000000 0.200000 2.000000 
0.000000 0.200000 2.100000 
0.000000 0.200000 2.200000 
0.000000 0.200000 2.300000 
0.000000 0.200000 2.400000 
0.000000 0.200000 2.500000 
0.000000 0.200000 2.600000 
0.000000 0.200000 2.700000 
0.000000 0.200000 2.800000 
0.000000 0.200000 2.900000 
0.000000 0.200000 3.000000 
0.000000 0.200000 3.100000 
0.000000 0.200000 3.200000 
0.000000 0.200000 3.300000 
0.000000 0.200000 3.400000 
0.000000 0.200000 3.500000 
0.000000 0.200000 3.600000 
0.000000 0.200000 3.700000 
0.000000 0.200000 3.800000 
0.000000 0.200000 3.900000 
0.000000 0.200000 4.000000 
0.000000 0.200000 4.100000 
0.000000 0.200000 4.200000 
0.000000 0.200000 4.300000 
0.000000 0.200000 4.400000 
0.000000 0.200000 4.500000 
0.000000 0.200000 4.600000 
0.000000 0.200000 4.700000 
0.000000 0.200000 4.800000 
0.000000 0.200000 4.900000 
0.000000 0.200000 5.000000 
0.000000 0.300000 0.000000 
0.000000 0.300000 0.100000 
0.000000 0.300000 0.200000 
0.000000 0.300000 0.300000 
0.000000 0.300000 0.400000 
0.000000 0.300000 0.500000 
0.000000 0.300000 0.600000 
0.000000 0.300000 0.700000 
0.000000 0.300000 0.800000 
0.000000 0.300000 0.900000 
0.000000 0.300000 1.000000 
0.000000 0.300000 1.100000 
0.000000 0.300000 1.200000 
0.000000 0.300000 1.300000 
0.000000 0.300000 1.400000 
0.000000 0.300000 1.500000 
0.000000 0.300000 1.600000 
0.000000 0.300000 1.700000 
0.000000 0.300000 1.800000 
0.000000 0.300000 1.900000 
0.000000 0.300000 2.000000 
0.000000 0.300000 2.100000 
0.000000 0.300000 2.200000 
0.000000 0.300000 2.300000 
0.000000 0.300000 2.400000 
0.000000 0.300000 2.500000 
0.000000 0.300000 2.600000 
0.000000 0.300000 2.700000 
0.000000 0.300000 2.800000 
0.000000 0.300000 2.900000 
0.000000 0.300000 3.000000 
0.000000 0.300000 3.100000 
0.000000 0.300000 3.200000 
0.000000 0.300000 3.300000 
0.000000 0.300000 3.400000 
0.000000 0.300000 3.500000 
0.000000 0.300000 3.600000 
0.000000 0.300000 3.700000 
0.000000 0.300000 3.800000 
0.000000 0.300000 3.900000 
0.000000 0.300000 4.000000 
0.000000 0.300000 4.100000 
0.000000 0.300000 4.200000 
0.000000 0.300000 4.300000 
0.000000 0.300000 4.400000 
0.000000 0.300000 4.500000 
0.000000 0.300000 4.600000 
0.000000 0.300000 4.700000 
0.000000 0.300000 4.800000 
0.000000 0.300000 4.900000 
0.000000 0.300000 5.000000 
0.000000 0.400000 0.000000 
0.000000 0.400000 0.100000 
0.000000 0.400000 0.200000 
0.000000 0.400000 0.300000 
0.000000 0.400000 0.400000 
0.000000 0.400000 0.500000 
0.000000 0.400000 0.600000 
0.000000 0.400000 0.700000 
0.000000 0.400000 0.800000 
0.000000 0.400000 0.900000 
0.000000 0.400000 1.000000 
0.000000 0.400000 1.100000 
0.000000 0.400000 1.200000 
0.000000 0.400000 1.300000 
0.000000 0.400000 1.400000 
0.000000 0.400000 1.500000 
0.000000 0.400000 1.600000 
0.000000 0.400000 1.700000 
0.000000 0.400000 1.800000 
0.000000 0.400000 1.900000 
0.000000 0.400000 2.000000 
0.000000 0.400000 2.100000 
0.000000 0.400000 2.200000 
0.000000 0.400000 2.300000 
0.000000 0.400000 2.400000 
0.000000 0.400000 2.500000 
0.000000 0.400000 2.600000 
0.000000 0.400000 2.700000 
0.000000 0.400000 2.800000 
0.000000 0.400000 2.900000 
0.000000 0.400000 3.000000 
0.000000 0.400000 3.100000 
0.000000 0.400000 3.200000 
0.000000 0.400000 3.300000 
0.000000 0.400000 3.400000 
0.000000 0.400000 3.500000 
0.000000 0.400000 3.600000 
0.000000 0.400000 3.700000 
0.000000 0.400000 3.800000 
0.000000 0.400000 3.900000 
0.000000 0.400000 4.000000 
0.000000 0.400000 4.100000 
0.000000 0.400000 4.200000 
0.000000 0.400000 4.300000 
0.000000 0.400000 4.400000 
0.000000 0.400000 4.500000 
0.000000 0.400000 4.600000 
0.000000 0.400000 4.700000 
0.000000 0.400000 4.800000 
0.000000 0.400000 4.900000 
0.000000 0.400000 5.000000 
0.000000 0.500000 0.000000 
0.000000 0.500000 0.100000 
0.000000 0.500000 0.200000 
0.000000 0.500000 0.300000 
0.000000 0.500000 0.400000 
0.000000 0.500000 0.500000 
0.000000 0.500000 0.600000 
0.000000 0.500000 0.700000 
0.000000 0.500000 0.800000 
0.000000 0.500000 0.900000 
0.000000 0.500000 1.000000 
0.000000 0.500000 1.100000 
0.000000 0.500000 1.200000 
0.000000 0.500000 1.300000 
0.000000 0.500000 1.400000 
0.000000 0.500000 1.500000 
0.000000 0.500000 1.600000 
0.000000 0.500000 1.700000 
0.000000 0.500000 1.800000 
0.000000 0.500000 1.900000 
0.000000 0.500000 2.000000 
0.000000 0.500000 2.100000 
0.000000 0.500000 2.200000 
0.000000 0.500000 2.300000 
0.000000 0.500000 2.400000 
0.000000 0.500000 2.500000 
0.000000 0.500000 2.600000 
0.000000 0.500000 2.700000 
0.000000 0.500000 2.800000 
0.000000 0.500000 2.900000 
0.000000 0.500000 3.000000 
0.000000 0.500000 3.100000 
0.000000 0.500000 3.200000 
0.000000 0.500000 3.300000 
0.000000 0.500000 3.400000 
0.000000 0.500000 3.500000 
0.000000 0.500000 3.600000 
0.000000 0.500000 3.700000 
0.000000 0.500000 3.800000 
0.000000 0.500000 3.900000 
0.000000 0.500000 4.000000 
0.000000 0.500000 4.100000 
0.000000 0.500000 4.200000 
0.000000 0.500000 4.300000 
0.000000 0.500000 4.400000 
0.000000 0.500000 4.500000 
0.000000 0.500000 4.600000 
0.000000 0.500000 4.700000 
0.000000 0.500000 4.800000 
0.000000 0.500000 4.900000 
0.000000 0.500000 5.000000 
0.000000 0.600000 0.000000 
0.000000 0.600000 0.100000 
0.000000 0.600000 0.200000 
0.000000 0.600000 0.300000 
0.000000 0.600000 0.400000 
0.000000 0.600000 0.500000 
0.000000 0.600000 0.600000 
0.000000 0.600000 0.700000 
0.000000 0.600000 0.800000 
0.000000 0.600000 0.900000 
0.000000 0.600000 1.000000 
0.000000 0.600000 1.100000 
0.000000 0.600000 1.200000 
0.000000 0.600000 1.300000 
0.000000 0.600000 1.400000 
0.000000 0.600000 1.500000 
0.000000 0.600000 1.600000 
0.000000 0.600000 1.700000 
0.000000 0.600000 1.800000 
0.000000 0.600000 1.900000 
0.000000 0.600000 2.000000 
0.000000 0.600000 2.100000 
0.000000 0.600000 2.200000 
0.000000 0.600000 2.300000 
0.000000 0.600000 2.400000 
0.000000 0.600000 2.500000 
0.000000 0.600000 2.600000 
0.000000 0.600000 2.700000 
0.000000 0.600000 2.800000 
0.000000 0.600000 2.900000 
0.000000 0.600000 3.000000 
0.000000 0.600000 3.100000 
0.000000 0.600000 3.200000 
0.000000 0.600000 3.300000 
0.000000 0.600000 3.400000 
0.000000 0.600000 3.500000 
0.000000 0.600000 3.600000 
0.000000 0.600000 3.700000 
0.000000 0.600000 3.800000 
0.000000 0.600000 3.900000 
0.000000 0.600000 4.000000 
0.000000 0.600000 4.100000 
0.000000 0.600000 4.200000 
0.000000 0.600000 4.300000 
0.000000 0.600000 4.400000 
0.000000 0.600000 4.500000 
0.000000 0.600000 4.600000 
0.000000 0.600000 4.700000 
[...]
CELL_DATA 10000 
SCALARS density float 1 
LOOKUP_TABLE default 
1.077786 
1.090500 
1.090500 
1.090500 
1.000156 
1.000001 
1.000006 
1.090498 
1.090498 
1.007735 
0.999989 
0.967586 
0.163977 
0.010000 
0.010000 
0.010000 
0.010000 
0.010000 
0.010000 
0.010000 
0.010000 
0.010000 
0.010000 
0.010000 
0.010000 
0.010000 
0.010000 
0.010000 
0.010000 
0.010000 
0.010000 
0.010000 
0.010000 
0.010000 
0.010000 
0.010000 
0.010000 
0.010000 
0.010000 
0.010000 
0.010000 
0.010000 
0.010000 
0.017016 
0.800261 
1.044403 
1.188901 
1.189192 
1.189192 
1.147335 
1.079266 
1.090500 
1.090500 
1.090500 
1.000769 
1.000000 
0.999999 
1.090498 
1.090498 
1.027508 
0.999989 
0.982173 
0.189890 
0.010000 
0.010000 
0.010000 
0.010000 
0.010000 
0.010000 
0.010000 
0.010000 
0.010000 
0.010000 
0.010000 
0.010000 
0.010000 
0.010000 
0.010000 
0.010000 
0.010000 
0.010000 
0.010000 
0.010000 
0.010000 
0.010000 
0.010000 
0.010000 
0.010000 
0.010000 
0.010000 
0.010000 
0.010000 
0.010000 
0.010495 
0.783873 
1.067152 
1.189192 
1.189192 
1.189192 
1.148034 
1.080636 
1.090500 
1.090500 
1.090500 
1.001786 
0.999999 
0.999995 
1.090498 
1.090498 
1.016174 
0.999989 
0.993595 
0.216680 
0.010000 
0.010000 
0.010000 
0.010000 
0.010000 
0.010000 
0.010000 
0.010000 
0.010000 
0.010000 
0.010000 
0.010000 
0.010000 
0.010000 
0.010000 
0.010000 
0.010000 
0.010000 
0.010000 
0.010000 
0.010000 
0.010000 
0.010000 
0.010000 
0.010000 
0.010000 
0.010000 
0.010000 
0.010000 
0.010000 
0.010000 
0.671966 
1.138033 
1.189192 
1.189192 
1.189192 
1.150618 
1.081959 
1.090500 
1.090500 
1.090500 
1.004002 
0.999998 
0.999994 
1.089689 
1.090498 
1.008566 
0.999989 
0.999982 
0.244240 
0.010000 
0.010000 
0.010000 
0.010000 
0.010000 
0.010000 
0.010000 
0.010000 
0.010000 
0.010000 
0.010000 
0.010000 
0.010000 
0.010000 
0.010000 
0.010000 
0.010000 
0.010000 
0.010000 
0.010000 
0.010000 
0.010000 
0.010000 
0.010000 
0.010000 
0.010000 
0.010000 
0.010000 
0.010000 
0.010000 
0.015973 
0.731187 
1.146610 
1.189192 
1.189192 
1.189192 
1.155588 
1.083229 
1.090500 
1.090500 
1.090500 
1.008278 
0.999997 
0.999993 
1.085040 
1.090498 
1.004087 
0.999989 
0.999989 
0.272472 
0.010000 
0.010000 
0.010000 
0.010000 
0.010000 
0.010000 
0.010000 
0.010000 
0.010000 
0.010000 
0.010000 
0.010000 
0.010000 
0.010000 
0.010000 
0.010000 
0.010000 
0.010000 
0.010000 
0.010000 
0.010000 
0.010000 
0.010000 
0.010000 
0.010000 
0.010000 
0.010000 
0.010000 
0.010000 
0.010000 
0.325584 
0.999287 
1.147187 
1.189192 
1.189192 
1.189192 
1.118888 
1.084440 
1.090500 
1.090500 
1.090500 
1.015608 
0.999996 
0.999993 
1.078516 
1.090498 
1.001741 
0.999989 
0.999989 
0.301285 
0.010000 
0.010000 
0.010000 
0.010000 
0.010000 
0.010000 
0.010000 
0.010000 
0.010000 
0.010000 
0.010000 
0.010000 
0.010000 
0.010000 
0.010000 
0.010000 
0.010000 
0.010000 
0.010000 
0.010000 
0.010000 
0.010000 
0.010000 
0.010000 
0.010000 
0.010000 
0.010000 
0.010000 
0.010000 
0.016100 
0.721198 
1.000035 
1.147187 
1.189192 
1.189192 
1.187645 
1.125545 
1.085585 
1.090500 
1.090500 
1.090500 
1.026754 
0.999996 
0.999993 
1.070961 
1.090498 
1.000652 
0.999989 
0.999989 
0.330592 
0.010000 
0.010000 
0.010000 
0.010000 
0.010000 
0.010000 
0.010000 
0.010000 
0.010000 
0.010000 
0.010000 
0.010000 
0.010000 
0.010000 
0.010000 
0.010000 
0.010000 
0.010000 
0.010000 
0.010000 
0.010000 
0.010000 
0.010000 
0.010000 
0.010000 
0.010000 
0.010000 
0.010000 
0.010000 
0.325884 
0.999176 
1.000111 
1.141772 
1.189192 
1.189192 
1.150012 
1.119654 
1.086656 
1.090500 
1.090500 
1.090500 
1.041716 
0.999995 
0.999993 
1.062889 
1.090498 
1.000206 
0.999989 
0.999989 
0.360314 
0.010000 
0.010000 
0.010000 
0.010000 
0.010000 
0.010000 
0.010000 
0.010000 
0.010000 
0.010001 
0.010001 
0.010001 
0.010001 
0.010000 
0.010000 
0.010000 
0.010000 
0.010000 
0.010000 
0.010000 
0.010000 
0.010000 
0.010000 
0.010000 
0.010000 
0.010000 
0.010000 
0.010000 
0.017982 
0.721705 
1.000322 
1.000373 
1.121389 
1.189192 
1.187619 
1.147191 
1.109945 
1.087642 
1.090500 
1.090500 
1.090500 
1.059285 
0.999995 
0.999993 
1.054690 
1.090498 
1.000049 
0.999989 
0.999989 
0.390370 
0.010000 
0.010000 
0.010000 
0.010000 
0.010000 
0.010000 
0.010000 
0.010000 
0.010004 
0.010004 
0.010004 
0.010004 
0.010004 
0.010004 
0.010000 
0.010000 
0.010000 
0.010000 
0.010000 
0.010000 
0.010000 
0.010000 
0.010000 
0.010000 
0.010000 
0.010000 
0.010000 
0.010000 
0.597945 
1.090080 
1.090497 
1.087437 
1.104590 
1.189192 
1.150003 
1.147187 
1.102450 
1.088532 
1.090500 
1.090500 
1.090500 
1.076840 
0.999994 
0.999993 
1.046671 
1.090498 
1.000002 
0.999989 
0.999989 
0.420686 
0.010000 
0.010000 
0.010000 
0.010000 
0.010000 
0.010000 
0.010000 
0.010000 
0.010004 
0.010004 
0.010004 
0.010004 
0.010004 
0.010004 
0.010000 
0.010000 
0.010000 
0.010000 
0.010000 
0.010000 
0.010000 
0.010000 
0.010000 
0.010000 
0.010000 
0.010000 
0.010000 
0.220270 
0.990784 
1.090497 
1.090497 
1.091828 
1.124667 
1.187593 
1.147191 
1.147187 
1.097256 
1.089309 
1.090500 
1.090500 
1.090501 
1.089649 
0.999994 
0.999993 
1.039077 
1.090498 
0.999991 
0.999989 
0.999989 
0.451188 
0.010000 
0.010000 
0.010000 
0.010000 
0.010000 
0.010000 
0.010000 
0.010000 
0.010004 
0.010004 
0.010004 
0.010004 
0.010004 
0.010004 
0.010000 
0.010000 
0.010000 
0.010000 
0.010000 
0.010000 
0.010000 
0.010000 
0.010000 
0.010000 
0.010000 
0.010000 
0.010000 
0.339874 
1.090106 
1.090497 
1.090497 
1.093383 
1.141400 
1.149993 
1.147187 
1.147187 
1.094002 
1.089946 
1.090500 
1.090500 
1.090504 
1.090386 
0.999994 
0.999993 
1.032095 
1.081922 
0.999989 
0.999989 
0.999989 
0.481803 
0.010000 
0.010000 
0.010000 
0.010000 
0.010000 
0.010000 
0.010000 
0.010000 
0.010000 
0.010003 
0.010003 
0.010003 
0.010003 
0.010000 
0.010000 
0.010000 
0.010000 
0.010000 
0.010000 
0.010000 
0.010000 
0.010000 
0.010000 
0.010000 
0.010000 
0.010000 
0.016484 
0.722112 
1.090497 
1.090497 
1.090497 
1.096194 
1.140980 
1.147191 
1.147187 
1.147187 
1.092153 
1.090394 
1.090500 
1.090500 
1.090520 
1.089892 
0.999994 
0.999993 
1.025849 
1.065241 
0.999989 
0.999989 
0.999989 
0.512461 
0.010000 
0.010000 
0.010000 
0.010000 
0.010000 
0.010000 
0.010000 
0.010000 
0.010000 
0.010000 
0.010000 
0.010000 
0.010000 
0.010000 
0.010000 
0.010000 
0.010000 
0.010000 
0.010000 
0.010000 
0.010000 
0.010000 
0.010000 
0.010000 
0.010000 
0.010000 
0.326785 
0.999320 
1.090497 
1.090497 
1.090497 
1.100805 
1.091524 
1.147187 
1.147187 
1.147187 
1.091202 
1.090500 
1.090500 
1.090500 
1.090579 
1.089222 
0.999993 
0.999993 
1.020408 
1.047295 
0.999989 
0.999989 
0.999989 
0.543090 
0.010000 
0.010000 
0.010000 
0.010000 
0.010000 
0.010000 
0.010000 
0.010000 
0.010000 
0.010000 
0.010000 
0.010000 
0.010000 
0.010000 
0.010000 
0.010000 
0.010000 
0.010000 
0.010000 
0.010000 
0.010000 
0.010000 
0.010000 
0.010000 
0.010000 
0.016612 
0.722366 
0.999992 
1.090442 
1.090497 
1.090497 
1.104922 
1.089705 
1.146861 
1.147187 
1.147187 
1.090762 
1.090500 
1.090500 
1.090500 
1.090754 
1.088420 
0.999993 
0.999993 
1.015791 
1.031247 
0.999989 
0.999989 
0.999989 
0.573619 
0.010000 
0.010000 
0.010000 
0.010000 
0.010000 
0.010000 
0.010000 
0.010000 
0.010000 
0.010000 
0.010000 
0.010000 
0.010000 
0.010000 
0.010000 
0.010000 
0.010000 
0.010000 
0.010000 
0.010000 
0.010000 
0.010000 
0.010000 
0.010000 
0.010000 
0.327085 
0.999363 
0.999991 
1.088853 
1.090497 
1.090497 
1.050111 
1.090503 
1.125391 
1.147187 
1.147187 
1.090580 
1.090500 
1.090500 
1.090500 
1.091202 
1.087508 
0.999993 
0.999993 
1.011970 
1.018759 
0.999989 
0.999989 
0.999989 
0.603975 
0.010000 
0.010000 
0.010000 
0.010000 
0.010000 
0.010000 
0.010000 
0.010000 
0.010000 
0.010000 
0.010000 
0.010000 
0.010000 
0.010000 
0.010000 
0.010000 
0.010000 
0.010000 
0.010000 
0.010000 
0.010000 
0.010000 
0.010000 
0.010000 
0.016742 
0.722658 
0.999990 
0.999991 
1.086257 
1.090497 
1.087402 
1.061707 
1.090503 
1.091221 
1.147187 
1.147187 
1.090515 
1.090500 
1.090500 
1.090500 
1.092213 
1.086502 
0.999993 
0.999993 
1.008887 
1.010200 
0.999989 
0.999989 
0.999989 
0.634085 
0.010000 
0.010000 
0.010000 
0.010000 
0.010000 
0.010000 
0.010000 
0.010000 
0.010000 
0.010000 
0.010000 
0.010000 
0.010000 
0.010000 
0.010000 
0.010000 
0.010000 
0.010000 
0.010000 
0.010000 
0.010000 
0.010000 
0.010000 
0.010000 
0.327385 
0.999407 
0.999990 
0.999991 
1.083034 
1.090497 
1.007137 
1.078164 
1.090504 
1.090503 
1.090536 
1.091331 
1.000161 
1.090500 
1.090500 
1.090500 
1.094241 
1.085414 
0.999993 
0.999993 
1.006459 
1.005003 
0.999989 
0.999989 
0.999989 
0.663875 
0.010000 
0.010000 
0.010000 
0.010000 
0.010000 
0.010000 
0.010000 
0.010000 
0.010000 
0.010000 
0.010000 
0.010000 
0.010000 
0.010000 
0.010000 
0.010000 
0.010000 
0.010000 
0.010000 
0.010000 
0.010000 
0.010000 
0.010000 
0.016872 
0.722949 
0.999990 
0.999990 
0.999990 
1.079360 
1.087353 
1.000001 
1.089832 
1.090504 
1.090505 
1.090500 
1.090500 
0.999996 
1.090500 
1.090500 
1.090500 
1.097885 
1.084253 
0.999993 
0.999993 
1.004593 
1.002198 
0.999989 
0.999989 
0.999989 
0.693266 
0.010000 
0.010000 
0.010000 
0.010000 
0.010000 
0.010000 
0.010000 
0.010000 
0.010000 
0.010000 
0.010000 
0.010000 
0.010000 
0.010000 
0.010000 
0.010000 
0.010000 
0.010000 
0.010000 
0.010000 
0.010000 
0.010000 
0.010000 
0.327686 
0.999450 
0.999990 
0.999990 
0.999990 
1.075357 
1.007113 
0.999998 
1.090499 
1.090504 
1.090507 
1.090500 
1.081804 
0.999994 
1.090500 
1.090500 
1.090500 
1.103757 
1.083028 
0.999993 
0.999993 
1.003193 
1.000853 
0.999989 
0.999989 
0.999989 
0.722177 
0.010000 
0.010000 
0.010000 
0.010000 
0.010000 
0.010000 
0.010000 
0.010000 
0.010000 
0.010000 
0.010000 
0.010000 
0.010000 
0.010000 
0.010000 
0.010000 
0.010000 
0.010000 
0.010000 
0.010000 
0.010000 
0.010000 
0.017002 
0.723241 
0.999990 
0.999990 
0.999990 
0.999990 
1.067491 
1.000000 
1.000024 
1.090499 
1.090504 
1.090510 
1.090500 
1.066011 
0.999994 
1.090500 
1.090500 
1.090500 
1.112209 
1.081746 
0.999993 
0.999993 
1.002168 
1.000284 
0.999989 
0.999989 
0.999989 
0.750525 
0.010000 
0.010000 
0.010000 
0.010000 
0.010000 
0.010000 
0.010000 
0.010000 
0.010000 
0.010000 
0.010000 
0.010000 
0.010000 
0.010000 
0.010000 
0.010000 
0.010000 
0.010000 
0.010000 
0.010000 
0.010000 
0.010000 
0.327986 
0.999492 
0.999990 
0.999990 
0.999990 
0.999990 
0.962222 
0.999991 
1.000115 
1.090499 
1.090505 
1.090514 
1.090500 
1.048936 
0.999994 
1.090500 
1.090500 
1.090500 
1.122969 
1.080412 
0.999993 
0.999993 
1.001435 
1.000074 
0.999989 
0.999989 
0.999989 
0.778218 
0.010003 
0.010000 
0.010000 
0.010000 
0.010000 
0.010000 
0.010000 
0.010000 
0.010000 
0.010000 
0.010000 
0.010000 
0.010000 
0.010000 
0.010000 
0.010000 
0.010000 
0.010000 
0.010000 
0.010000 
0.010000 
0.017132 
0.723533 
0.999990 
0.999990 
0.999990 
0.999990 
0.993976 
0.942216 
0.999991 
1.000375 
1.090499 
1.090505 
1.090520 
1.090500 
1.033376 
0.999994 
1.090500 
1.090500 
1.090500 
1.134766 
1.079032 
0.999993 
0.999993 
1.000925 
1.000009 
0.999989 
0.999989 
0.999989 
0.805159 
0.015473 
0.010000 
0.010000 
0.010000 
0.010000 
0.010000 
0.010000 
0.010000 
0.010000 
0.010000 
0.010000 
0.010000 
0.010000 
0.010000 
0.010000 
0.010000 
0.010000 
0.010000 
0.010000 
0.010000 
0.010000 
0.328287 
0.999533 
0.999990 
0.999990 
0.999990 
0.999990 
0.700570 
0.931493 
0.999991 
1.001027 
1.090499 
1.090505 
1.090528 
1.090500 
1.020893 
0.999994 
1.090500 
1.090500 
1.090500 
1.144869 
1.077611 
0.999993 
0.999993 
1.000579 
0.999993 
0.999989 
0.999989 
0.999989 
0.831245 
0.029477 
0.010000 
0.010000 
0.010000 
0.010000 
0.010000 
0.010000 
0.010000 
0.010000 
0.010000 
0.010000 
0.010000 
0.010000 
0.010000 
0.010000 
0.010000 
0.010000 
0.010000 
0.010000 
0.010000 
0.017263 
0.723824 
0.999990 
0.999990 
0.999990 
0.999990 
0.993881 
0.304647 
0.920264 
0.999991 
1.002470 
1.090499 
1.090506 
1.090540 
1.090500 
1.011970 
0.999994 
1.090500 
1.090500 
1.090503 
1.147194 
1.076153 
0.999993 
0.999993 
0.990929 
0.999989 
0.999989 
0.999989 
0.999989 
0.856358 
0.046097 
0.010000 
0.010000 
0.010000 
0.010000 
0.010000 
0.010000 
0.010000 
0.010000 
0.010000 
0.010000 
0.010000 
0.010000 
0.010000 
0.010000 
0.010000 
0.010000 
0.010000 
0.010000 
0.010000 
0.328587 
0.999573 
0.999990 
0.999990 
0.999990 
0.999990 
0.700274 
0.090365 
0.908555 
0.999991 
1.005327 
1.090499 
1.090506 
1.090555 
1.090500 
1.006258 
0.999994 
1.090500 
1.090500 
1.090514 
1.147194 
1.074663 
0.999993 
0.999993 
0.959752 
1.022569 
1.027212 
1.000634 
0.999989 
0.880369 
0.064812 
0.010000 
0.010000 
0.010000 
0.010000 
0.010000 
0.010000 
0.010000 
0.010000 
0.010000 
0.010000 
0.010000 
0.010000 
0.010000 
0.010000 
0.010000 
0.010000 
0.010000 
0.010000 
0.017395 
0.724116 
0.999990 
0.999990 
0.999990 
0.999990 
0.993786 
0.304344 
0.078698 
0.896401 
0.999991 
1.010412 
1.090499 
1.090506 
1.090576 
1.090500 
1.002971 
0.999994 
1.090500 
1.090500 
1.090557 
1.147194 
1.073144 
0.999993 
1.000026 
1.050252 
1.090495 
1.090495 
1.090495 
1.000240 
0.903130 
0.085303 
0.010000 
0.010000 
0.010000 
0.010000 
0.010000 
0.010000 
0.010000 
0.010000 
0.010000 
0.010000 
0.010000 
0.010000 
0.010000 
0.010000 
0.010000 
0.010000 
0.010000 
0.010000 
0.328888 
0.999611 
0.999990 
0.999990 
0.999990 
0.999990 
0.699978 
0.010139 
0.067514 
0.883835 
0.999991 
1.018552 
1.090499 
1.090507 
1.090603 
1.090500 
1.001270 
0.999994 
1.090500 
1.090500 
1.090690 
1.147194 
1.071601 
0.999993 
1.002327 
1.035159 
1.090495 
1.090495 
1.090495 
1.008693 
0.924464 
0.107327 
0.010000 
0.010000 
0.010000 
0.010000 
0.010000 
0.010000 
0.010000 
0.010000 
0.010000 
0.010000 
0.010000 
0.010000 
0.010000 
0.010000 
0.010000 
0.010000 
0.010000 
0.017527 
0.724407 
0.999990 
0.999990 
0.999990 
0.999990 
0.993690 
0.304047 
0.010000 
0.056854 
0.870883 
0.999991 
1.030233 
1.090499 
1.090507 
1.090639 
1.090500 
1.000481 
0.999994 
1.090500 
1.090500 
1.091046 
1.147194 
1.070037 
0.999993 
1.006221 
1.021642 
1.090495 
1.090495 
1.090495 
1.005741 
0.944159 
0.130692 
0.010000 
0.010000 
0.010000 
0.010000 
0.010000 
0.010000 
0.010000 
0.010000 
0.010000 
0.010000 
0.010000 
0.010000 
0.010000 
0.010000 
0.010000 
0.010000 
0.010000 
0.329189 
0.999649 
0.999990 
0.999990 
0.999990 
0.999990 
0.699682 
0.010126 
0.010000 
0.046764 
0.857573 
0.999991 
1.045191 
1.090499 
1.090508 
1.090685 
1.090500 
1.000156 
0.999994 
1.090500 
1.090500 
1.091875 
1.147194 
1.068455 
0.999993 
1.014137 
1.012077 
1.090495 
1.090495 
1.090495 
1.002116 
0.961942 
0.155235 
0.010000 
0.010000 
0.010000 
0.010000 
0.010000 
0.010000 
0.010000 
0.010000 
0.010000 
0.010000 
0.010000 
0.010000 
0.010000 
0.010000 
0.010000 
0.010000 
0.029424 
0.725407 
1.000928 
1.000013 
0.999990 
0.999990 
0.993594 
0.303750 
0.010000 
0.010000 
0.037301 
0.843929 
0.999991 
1.062119 
1.090499 
1.090508 
1.090744 
1.090500 
1.000040 
0.999994 
1.090500 
1.090500 
1.093586 
1.147194 
1.066858 
0.999993 
1.027619 
1.006086 
1.090495 
1.090495 
1.090495 
1.000646 
0.977439 
0.180818 
0.010000 
0.010000 
0.010000 
0.010000 
0.010000 
0.010000 
0.010000 
0.010000 
0.010000 
0.010000 
0.010000 
0.010000 
0.010000 
0.010000 
0.010000 
0.010000 
0.587298 
1.090309 
1.090476 
1.089181 
1.000265 
0.999990 
0.699386 
0.010113 
0.010000 
0.010000 
0.028531 
0.829972 
0.999991 
1.078528 
1.090499 
1.090509 
1.090818 
1.090500 
1.000005 
0.999994 
1.090500 
1.090500 
1.096749 
1.147194 
1.065250 
0.999993 
1.046682 
1.002753 
1.090495 
1.090495 
1.090495 
1.000153 
0.990068 
0.207317 
0.010000 
0.010000 
0.010000 
0.010000 
0.010000 
0.010000 
0.010000 
0.010000 
0.010000 
0.010000 
0.010000 
0.010000 
0.010000 
0.010000 
0.010000 
0.257861 
0.977905 
1.090476 
1.090476 
1.090476 
1.022788 
0.993498 
0.303454 
0.010000 
0.010000 
0.010000 
0.020547 
0.815724 
0.999992 
1.089978 
1.090499 
1.090509 
1.090912 
1.090500 
0.999996 
0.999994 
1.090500 
1.090500 
1.101993 
1.147194 
1.063633 
0.999993 
1.068625 
1.001105 
1.090472 
1.090495 
1.090495 
1.000020 
0.998644 
0.234622 
0.010000 
0.010000 
0.010000 
0.010000 
0.010000 
0.010000 
0.010000 
0.010000 
0.010000 
0.010000 
0.010000 
0.010000 
0.010000 
0.010000 
0.010013 
0.680045 
1.090328 
1.090476 
1.090476 
1.090476 
1.019419 
0.699090 
0.010102 
0.010000 
0.010000 
0.010000 
0.013589 
0.801204 
0.999998 
1.090499 
1.090499 
1.090510 
1.091030 
1.081467 
0.999994 
0.999994 
1.090500 
1.090500 
1.109771 
1.147194 
1.062010 
0.999993 
1.087253 
1.000383 
1.086923 
1.090495 
1.090495 
0.999993 
0.999989 
0.262633 
0.010000 
0.010000 
0.010000 
0.010000 
0.010000 
0.010000 
0.010000 
0.010000 
0.010000 
0.010000 
0.010000 
0.010000 
0.010000 
0.010000 
0.325101 
1.005297 
1.090476 
1.090476 
1.090476 
1.090476 
0.993578 
0.303157 
0.010000 
0.010000 
0.010000 
0.010000 
0.010107 
0.786430 
1.000025 
1.090499 
1.090499 
1.090510 
1.091175 
1.065597 
0.999994 
0.999994 
1.090500 
1.090500 
1.120008 
1.147194 
1.060384 
1.000000 
1.090497 
1.000108 
1.080919 
1.090495 
1.082959 
0.999989 
0.999989 
0.291254 
0.010000 
0.010000 
0.010000 
0.010000 
0.010000 
0.010000 
0.010000 
0.010000 
0.010000 
0.010000 
0.010000 
0.010000 
0.010000 
0.036407 
0.746953 
1.090346 
1.090476 
1.090476 
1.090476 
1.017153 
0.698793 
0.010092 
0.010000 
0.010000 
0.010000 
0.010000 
0.010000 
0.771420 
1.000118 
1.090499 
1.090499 
1.090511 
1.091353 
1.048532 
0.999994 
0.999994 
1.090500 
1.090500 
1.131727 
1.147194 
1.058757 
1.000044 
1.090497 
1.000018 
1.073653 
1.090495 
1.062497 
0.999989 
0.999989 
0.320400 
0.010000 
0.010000 
0.010000 
0.010000 
0.010000 
0.010000 
0.010000 
0.010000 
0.010000 
0.010000 
0.010000 
0.010000 
0.010000 
0.394671 
1.009249 
1.090476 
1.090476 
1.090476 
1.090476 
0.993347 
0.302860 
0.010000 
0.010000 
0.010000 
0.010000 
0.010000 
0.010000 
0.756191 
1.000385 
1.090499 
1.090499 
1.090511 
1.091570 
1.033032 
0.999994 
0.999994 
1.090500 
1.090500 
1.142659 
1.147194 
1.057132 
1.000240 
1.090497 
0.999994 
1.065711 
1.090495 
1.040903 
0.999989 
0.999989 
0.349987 
0.010000 
0.010000 
0.010000 
0.010000 
0.010000 
0.010000 
0.010000 
0.010000 
0.010000 
0.010000 
0.010000 
0.010000 
0.080291 
0.810431 
1.090364 
1.090476 
1.090476 
1.090476 
1.008846 
0.698497 
0.010082 
0.010000 
0.010000 
0.010000 
0.010000 
0.010000 
0.010000 
0.740759 
1.001051 
1.090499 
1.090499 
1.090512 
1.091832 
1.020634 
0.999994 
0.999994 
1.090500 
1.090502 
1.147194 
1.147194 
1.055510 
1.000922 
1.088323 
0.999989 
1.057518 
1.090495 
1.023254 
0.999989 
0.999989 
0.379936 
0.010000 
0.010000 
0.010000 
0.010000 
0.010000 
0.010000 
0.010000 
0.010000 
0.010000 
0.010000 
0.010000 
0.010000 
0.465594 
1.009278 
1.090476 
1.090476 
1.090476 
1.083291 
0.993214 
0.302564 
0.010000 
0.010000 
0.010000 
0.010000 
0.010000 
0.010000 
0.010000 
0.725139 
1.002520 
1.090499 
1.090499 
1.090513 
1.092148 
1.011796 
0.999994 
0.999994 
1.090500 
1.090509 
1.147194 
1.147194 
1.053895 
1.002848 
1.074319 
0.999988 
1.049405 
1.090495 
1.011418 
0.999989 
0.999989 
0.410171 
0.010000 
0.010000 
0.010000 
0.010000 
0.010000 
0.010000 
0.010000 
0.010000 
0.010000 
0.010000 
0.010000 
0.132883 
0.869154 
1.090380 
1.090476 
1.090476 
1.090476 
1.004063 
0.698201 
0.010074 
0.010000 
0.010000 
0.010000 
0.010000 
0.010000 
0.010000 
0.010000 
0.709346 
1.005420 
1.090499 
1.090499 
1.090513 
1.092524 
1.006153 
0.999994 
0.999994 
1.090500 
1.090540 
1.147194 
1.147194 
1.052289 
1.007364 
1.056523 
0.999988 
1.041640 
1.090495 
1.004808 
0.999989 
0.999989 
0.440616 
0.010000 
0.010000 
0.010000 
0.010000 
0.010000 
0.010000 
0.010000 
0.010000 
0.010000 
0.010000 
0.010000 
0.536952 
1.009307 
1.090476 
1.090476 
1.090476 
1.066008 
0.993108 
0.302267 
0.010000 
0.010000 
0.010000 
0.010000 
0.010000 
0.010000 
0.010000 
0.010000 
0.693394 
1.010571 